[ si ]
966 1394 1448 1278 1326 343 54 148 1227 410 320 1184 1062 795 1084
965 1182 602 1347 532 579 266 245 967 220 626 481 894 173 1395
6 1495 1256 608 992 1179 1419 725 553 607 198 1304 968 219 1177
560 434 703 1252 507 1513 605 1472 1086 53 1131 1351 1322 1082 1133
1328 913 652 1034 26 413 193 1106 1345 655 365 987 558 482 463
313 581 1016 867 704 578 1014 866 1132 844 270 243 29 536 1036
1348 1057 268 200 772 1399 389 457 1398 1205 1204 1202 842 701 102
52 1064 632 218 1299 1374 123 794 316 366 917 1203 1444 1514 241
291 986 1015 247 32 363 1136 991 1519 1375 1275 627 1323 679 964
606 796 295 5 699 1491 1009 846 1063 1060 103 505 1134 871 1130
698 509 1111 1346 414 344 222 653 865 629 751 508 1225 677 1277
506 1231 460 1421 97 1301 559 747 124 1496 1129 1040 7 942 1520
985 1226 1228 750 726 172 292 1442 122 773 294 530 628 484 1418
1033 721 368 147 891 510 1372 196 1230 1352 433 1300 896 651 1208
533 1059 74 1155 151 1039 269 56 963 339 1153 843 1180 78 940
217 919 415 246 1012 583 1424 673 776 1445 362 315 869 4 1276
848 700 631 464 51 798 1135 892 223 582 49 746 367 918 745
1253 1154 580 1327 770 941 601 943 436 1393 529 1466 77 1469 675
1516 483 654 1397 889 1303 1471 895 1494 916 769 248 1255 774 1105
603 1061 674 99 823 242 293 845 73 868 55 800 1422 989 98
265 488 728 1489 271 944 914 390 1085 1058 152 462 890 1490 625
1297 3 364 1249 656 1081 1465 697 1396 289 1370 50 577 1 1321
1373 1273 630 1250 1011 824 412 458 411 1443 195 555 104 1109 1349
145 797 604 199 819 554 962 169 1280 915 318 409 1279 649 870
1417 1178 1467 459 127 197 820 30 149 1420 1160 650 1446 937 723
319 724 1376 1037 2 385 822 1087 1369 244 771 990 1447 27 557
1298 176 1083 126 1108 76 317 512 793 1229 531 1515 702 314 988
150 821 1302 818 1254 1518 338 337 170 487 1088 722 486 799 847
175 1274 817 485 440 146 1201 1517 1158 28 775 391 386 556 267
1371 1400 25 80 340 437 1112 1013 1468 1183 1325 125 749 435 676
534 1441 920 680 748 1324 341 727 1038 461 101 938 1157 961 511
841 128 31 174 1232 272 584 361 171 893 1470 387 1350 678 8
939 1207 221 872 100 416 1107 1110 79 438 1492 1251 1010 296 535
224 1159 1423 388 1181 121 439 1493 1156 194 1035 290 75 752 342
392 1206
